
data_zsm5_bighol_NiF2_a

_audit_creation_method            'SHELXL-2016/6'
_shelx_SHELXL_version_number      '2016/6'
_chemical_name_systematic         ?
_chemical_name_common             ?
_chemical_melting_point           ?
_chemical_formula_moiety          ?
_chemical_formula_sum
 'O48 Si24'
_chemical_formula_weight          1442.40

loop_
 _atom_type_symbol
 _atom_type_description
 _atom_type_scat_dispersion_real
 _atom_type_scat_dispersion_imag
 _atom_type_scat_source
 'O'  'O'   0.0000   0.0000
 'International Tables Vol C Tables 4.2.6.8 and 6.1.1.4'
 'Si'  'Si'   0.0000   0.0000
 'International Tables Vol C Tables 4.2.6.8 and 6.1.1.4'

_space_group_crystal_system       orthorhombic
_space_group_IT_number            62
_space_group_name_H-M_alt         'P n m a'
_space_group_name_Hall            '-P 2ac 2n'

_shelx_space_group_comment
;
The symmetry employed for this shelxl refinement is uniquely defined
by the following loop, which should always be used as a source of
symmetry information in preference to the above space-group names.
They are only intended as comments.
;

loop_
 _space_group_symop_operation_xyz
 'x, y, z'
 '-x+1/2, -y, z+1/2'
 '-x, y+1/2, -z'
 'x+1/2, -y+1/2, -z+1/2'
 '-x, -y, -z'
 'x-1/2, y, -z-1/2'
 'x, -y-1/2, z'
 '-x-1/2, y-1/2, z-1/2'

_cell_length_a                    20.44(3)
_cell_length_b                    19.98(4)
_cell_length_c                    13.700(5)
_cell_angle_alpha                 90.00(3)
_cell_angle_beta                  90.0(2)
_cell_angle_gamma                 90.00(4)
_cell_volume                      5594(12)
_cell_formula_units_Z             4
_cell_measurement_temperature     293(2)
_cell_measurement_reflns_used     ?
_cell_measurement_theta_min       ?
_cell_measurement_theta_max       ?

_exptl_crystal_description        ?
_exptl_crystal_colour             ?
_exptl_crystal_density_meas       ?
_exptl_crystal_density_method     ?
_exptl_crystal_density_diffrn     1.713
_exptl_crystal_F_000              940
_exptl_transmission_factor_min    ?
_exptl_transmission_factor_max    ?
_exptl_crystal_size_max           ?
_exptl_crystal_size_mid           ?
_exptl_crystal_size_min           ?
_exptl_absorpt_coefficient_mu     0.006
_shelx_estimated_absorpt_T_min    ?
_shelx_estimated_absorpt_T_max    ?
_exptl_absorpt_correction_type    ?
_exptl_absorpt_correction_T_min   ?
_exptl_absorpt_correction_T_max   ?
_exptl_absorpt_process_details    ?
_exptl_absorpt_special_details    ?
_diffrn_ambient_temperature       293(2)
_diffrn_radiation_wavelength      0.02508
_diffrn_radiation_type            ?
_diffrn_source                    ?
_diffrn_measurement_device_type   ?
_diffrn_measurement_method        ?
_diffrn_detector_area_resol_mean  ?
_diffrn_reflns_number             277485
_diffrn_reflns_av_unetI/netI      0.2235
_diffrn_reflns_av_R_equivalents   0.5090
_diffrn_reflns_limit_h_min        -33
_diffrn_reflns_limit_h_max        33
_diffrn_reflns_limit_k_min        -32
_diffrn_reflns_limit_k_max        33
_diffrn_reflns_limit_l_min        -22
_diffrn_reflns_limit_l_max        22
_diffrn_reflns_theta_min          0.063
_diffrn_reflns_theta_max          1.210
_diffrn_reflns_theta_full         0.862
_diffrn_measured_fraction_theta_max   0.953
_diffrn_measured_fraction_theta_full  0.999
_diffrn_reflns_Laue_measured_fraction_max    0.953
_diffrn_reflns_Laue_measured_fraction_full   0.999
_diffrn_reflns_point_group_measured_fraction_max   0.953
_diffrn_reflns_point_group_measured_fraction_full  0.999
_reflns_number_total              13643
_reflns_number_gt                 9146
_reflns_threshold_expression      'I > 2\s(I)'
_reflns_Friedel_coverage          0.000
_reflns_Friedel_fraction_max      .
_reflns_Friedel_fraction_full     .

_reflns_special_details
;
 Reflections were merged by SHELXL according to the crystal
 class for the calculation of statistics and refinement.

 _reflns_Friedel_fraction is defined as the number of unique
 Friedel pairs measured divided by the number that would be
 possible theoretically, ignoring centric projections and
 systematic absences.
;

_computing_data_collection        ?
_computing_cell_refinement        ?
_computing_data_reduction         ?
_computing_structure_solution     'SHELXT 2014/5 (Sheldrick, 2014)'
_computing_structure_refinement 'SHELXL-2016/6 (Sheldrick, 2016)'
_computing_molecular_graphics     ?
_computing_publication_material   ?
_refine_special_details           ?
_refine_ls_structure_factor_coef  Fsqd
_refine_ls_matrix_type            full
_refine_ls_weighting_scheme       calc
_refine_ls_weighting_details
'w=1/[\s^2^(Fo^2^)+(0.1000P)^2^] where P=(Fo^2^+2Fc^2^)/3'
_atom_sites_solution_primary      ?
_atom_sites_solution_secondary    ?
_atom_sites_solution_hydrogens    .
_refine_ls_hydrogen_treatment     undef
_refine_ls_extinction_method      none
_refine_ls_extinction_coef        .
_refine_ls_number_reflns          13643
_refine_ls_number_parameters      149
_refine_ls_number_restraints      48
_refine_ls_R_factor_all           0.3492
_refine_ls_R_factor_gt            0.3053
_refine_ls_wR_factor_ref          0.5841
_refine_ls_wR_factor_gt           0.5649
_refine_ls_goodness_of_fit_ref    2.134
_refine_ls_restrained_S_all       2.133
_refine_ls_shift/su_max           0.004
_refine_ls_shift/su_mean          0.001

loop_
 _atom_site_label
 _atom_site_type_symbol
 _atom_site_fract_x
 _atom_site_fract_y
 _atom_site_fract_z
 _atom_site_U_iso_or_equiv
 _atom_site_adp_type
 _atom_site_occupancy
 _atom_site_site_symmetry_order
 _atom_site_calc_flag
 _atom_site_refinement_flags_posn
 _atom_site_refinement_flags_adp
 _atom_site_refinement_flags_occupancy
 _atom_site_disorder_assembly
 _atom_site_disorder_group
Si1 Si 0.42220(14) 1.05682(16) 0.6615(2) 0.0155(5) Uiso 1 1 d D . . . .
Si2 Si 0.30631(15) 1.0292(2) 0.8071(3) 0.0213(6) Uiso 1 1 d D . . . .
Si3 Si 0.28034(14) 1.06269(16) 1.0299(2) 0.0159(5) Uiso 1 1 d D . . . .
Si4 Si 0.12290(14) 1.06461(16) 1.0245(2) 0.0145(5) Uiso 1 1 d D . . . .
Si5 Si 0.07129(12) 1.02850(15) 0.8136(2) 0.0113(5) Uiso 1 1 d D . . . .
Si6 Si 0.18540(16) 1.05885(18) 0.6690(3) 0.0189(6) Uiso 1 1 d D . . . .
Si7 Si 0.42217(13) 0.82788(16) 0.6731(2) 0.0136(5) Uiso 1 1 d D . . . .
Si8 Si 0.30670(14) 0.87222(18) 0.8138(3) 0.0181(6) Uiso 1 1 d D . . . .
Si9 Si 0.27468(13) 0.82741(16) 1.0300(2) 0.0140(5) Uiso 1 1 d D . . . .
Si10 Si 0.11953(14) 0.82681(17) 1.0263(2) 0.0170(5) Uiso 1 1 d D . . . .
Si11 Si 0.06845(13) 0.87008(15) 0.8155(2) 0.0139(5) Uiso 1 1 d D . . . .
Si12 Si 0.18574(15) 0.82714(19) 0.6797(3) 0.0204(6) Uiso 1 1 d D . . . .
O1 O 0.3714(4) 1.0578(4) 0.7510(6) 0.0475(18) Uiso 1 1 d D . . . .
O2 O 0.3089(3) 1.0601(4) 0.9187(5) 0.0355(14) Uiso 1 1 d D . . . .
O3 O 0.2019(3) 1.0595(4) 1.0298(7) 0.0467(18) Uiso 1 1 d D . . . .
O4 O 0.0988(3) 1.0635(4) 0.9107(5) 0.0382(14) Uiso 1 1 d D . . . .
O5 O 0.1139(3) 1.0551(3) 0.7217(5) 0.0350(13) Uiso 1 1 d D . . . .
O6 O 0.2411(4) 1.0540(5) 0.7517(7) 0.056(2) Uiso 1 1 d D . . . .
O7 O 0.3712(4) 0.8418(5) 0.7622(6) 0.0470(17) Uiso 1 1 d D . . . .
O8 O 0.3089(3) 0.8448(4) 0.9259(5) 0.0393(15) Uiso 1 1 d D . . . .
O9 O 0.1970(3) 0.8446(4) 1.0273(5) 0.0344(13) Uiso 1 1 d D . . . .
O10 O 0.0886(4) 0.8376(5) 0.9173(7) 0.055(2) Uiso 1 1 d D . . . .
O11 O 0.1147(3) 0.8425(4) 0.7278(5) 0.0352(13) Uiso 1 1 d D . . . .
O12 O 0.2408(4) 0.8469(6) 0.7599(8) 0.060(2) Uiso 1 1 d D . . . .
O13 O 0.3087(7) 0.9511(6) 0.8161(14) 0.089(4) Uiso 1 1 d D . . . .
O14 O 0.0793(4) 0.9487(4) 0.8257(6) 0.0436(16) Uiso 1 1 d D . . . .
O15 O 0.4197(3) 1.1269(4) 0.6012(6) 0.0384(14) Uiso 1 1 d D . . . .
O16 O 0.4094(3) 0.9973(4) 0.5841(6) 0.0390(14) Uiso 1 1 d D . . . .
O17 O 0.4018(3) 0.8666(4) 0.5745(5) 0.0375(14) Uiso 1 1 d D . . . .
O18 O 0.1891(3) 1.1312(4) 0.6167(5) 0.0347(13) Uiso 1 1 d D . . . .
O19 O 0.1919(4) 1.0012(5) 0.5875(7) 0.0483(18) Uiso 1 1 d D . . . .
O20 O 0.1940(3) 0.8703(4) 0.5796(6) 0.0423(16) Uiso 1 1 d D . . . .
O21 O -0.0046(3) 1.0512(3) 0.7916(5) 0.0307(12) Uiso 1 1 d D . . . .
O22 O -0.0063(3) 0.8505(4) 0.7913(6) 0.0384(14) Uiso 1 1 d D . . . .
O23 O 0.4255(5) 0.750000 0.6421(8) 0.042(2) Uiso 1 2 d DS . P . .
O24 O 0.1892(4) 0.750000 0.6494(7) 0.0326(17) Uiso 1 2 d DS . P . .
O25 O 0.2868(4) 0.750000 1.0597(6) 0.0262(14) Uiso 1 2 d DS . P . .
O26 O 0.1097(4) 0.750000 1.0599(6) 0.0257(14) Uiso 1 2 d DS . P . .

_geom_special_details
;
 All esds (except the esd in the dihedral angle between two l.s. planes)
 are estimated using the full covariance matrix.  The cell esds are taken
 into account individually in the estimation of esds in distances, angles
 and torsion angles; correlations between esds in cell parameters are only
 used when they are defined by crystal symmetry.  An approximate (isotropic)
 treatment of cell esds is used for estimating esds involving l.s. planes.
;

loop_
 _geom_bond_atom_site_label_1
 _geom_bond_atom_site_label_2
 _geom_bond_distance
 _geom_bond_site_symmetry_2
 _geom_bond_publ_flag
Si1 O1 1.607(9) . ?
Si1 O16 1.616(8) . ?
Si1 O15 1.627(8) . ?
Si1 O21 1.631(7) 6_657 ?
Si2 O13 1.566(12) . ?
Si2 O6 1.611(9) . ?
Si2 O1 1.639(9) . ?
Si2 O2 1.650(8) . ?
Si3 O20 1.592(8) 2_575 ?
Si3 O3 1.603(8) . ?
Si3 O19 1.605(9) 2_575 ?
Si3 O2 1.632(8) . ?
Si4 O17 1.616(8) 2_575 ?
Si4 O3 1.620(8) . ?
Si4 O16 1.622(8) 2_575 ?
Si4 O4 1.635(8) . ?
Si5 O4 1.605(7) . ?
Si5 O14 1.611(8) . ?
Si5 O5 1.620(7) . ?
Si5 O21 1.644(7) . ?
Si6 O6 1.609(9) . ?
Si6 O19 1.610(9) . ?
Si6 O18 1.616(8) . ?
Si6 O5 1.631(7) . ?
Si7 O22 1.606(7) 6_657 ?
Si7 O17 1.613(8) . ?
Si7 O23 1.615(5) . ?
Si7 O7 1.628(8) . ?
Si8 O13 1.577(12) . ?
Si8 O7 1.615(8) . ?
Si8 O12 1.617(9) . ?
Si8 O8 1.631(8) . ?
Si9 O25 1.619(5) . ?
Si9 O9 1.624(7) . ?
Si9 O18 1.625(7) 2_575 ?
Si9 O8 1.627(8) . ?
Si10 O15 1.598(8) 2_575 ?
Si10 O26 1.615(5) . ?
Si10 O9 1.623(7) . ?
Si10 O10 1.635(9) . ?
Si11 O10 1.593(9) . ?
Si11 O14 1.593(8) . ?
Si11 O22 1.611(7) . ?
Si11 O11 1.624(7) . ?
Si12 O24 1.598(5) . ?
Si12 O12 1.621(10) . ?
Si12 O11 1.624(7) . ?
Si12 O20 1.629(8) . ?

loop_
 _geom_angle_atom_site_label_1
 _geom_angle_atom_site_label_2
 _geom_angle_atom_site_label_3
 _geom_angle
 _geom_angle_site_symmetry_1
 _geom_angle_site_symmetry_3
 _geom_angle_publ_flag
O1 Si1 O16 113.9(4) . . ?
O1 Si1 O15 110.9(5) . . ?
O16 Si1 O15 107.2(5) . . ?
O1 Si1 O21 107.0(5) . 6_657 ?
O16 Si1 O21 110.9(4) . 6_657 ?
O15 Si1 O21 106.8(4) . 6_657 ?
O13 Si2 O6 111.7(7) . . ?
O13 Si2 O1 111.1(7) . . ?
O6 Si2 O1 110.1(6) . . ?
O13 Si2 O2 107.4(8) . . ?
O6 Si2 O2 110.4(5) . . ?
O1 Si2 O2 106.1(5) . . ?
O20 Si3 O3 111.3(5) 2_575 . ?
O20 Si3 O19 110.1(5) 2_575 2_575 ?
O3 Si3 O19 108.7(5) . 2_575 ?
O20 Si3 O2 108.0(4) 2_575 . ?
O3 Si3 O2 110.9(5) . . ?
O19 Si3 O2 107.9(5) 2_575 . ?
O17 Si4 O3 110.3(4) 2_575 . ?
O17 Si4 O16 108.0(4) 2_575 2_575 ?
O3 Si4 O16 109.6(5) . 2_575 ?
O17 Si4 O4 108.8(4) 2_575 . ?
O3 Si4 O4 110.0(5) . . ?
O16 Si4 O4 110.3(4) 2_575 . ?
O4 Si5 O14 108.0(4) . . ?
O4 Si5 O5 108.2(4) . . ?
O14 Si5 O5 110.5(4) . . ?
O4 Si5 O21 111.3(4) . . ?
O14 Si5 O21 112.8(4) . . ?
O5 Si5 O21 106.0(4) . . ?
O6 Si6 O19 112.8(5) . . ?
O6 Si6 O18 109.4(5) . . ?
O19 Si6 O18 109.2(5) . . ?
O6 Si6 O5 108.6(5) . . ?
O19 Si6 O5 110.4(4) . . ?
O18 Si6 O5 106.2(4) . . ?
O22 Si7 O17 110.8(4) 6_657 . ?
O22 Si7 O23 108.2(5) 6_657 . ?
O17 Si7 O23 104.6(5) . . ?
O22 Si7 O7 107.9(5) 6_657 . ?
O17 Si7 O7 112.4(4) . . ?
O23 Si7 O7 112.9(5) . . ?
O13 Si8 O7 111.4(7) . . ?
O13 Si8 O12 110.0(7) . . ?
O7 Si8 O12 111.3(6) . . ?
O13 Si8 O8 108.4(8) . . ?
O7 Si8 O8 105.3(5) . . ?
O12 Si8 O8 110.4(5) . . ?
O25 Si9 O9 110.9(4) . . ?
O25 Si9 O18 103.4(4) . 2_575 ?
O9 Si9 O18 110.8(4) . 2_575 ?
O25 Si9 O8 111.0(5) . . ?
O9 Si9 O8 110.8(4) . . ?
O18 Si9 O8 109.6(4) 2_575 . ?
O15 Si10 O26 107.7(4) 2_575 . ?
O15 Si10 O9 110.9(4) 2_575 . ?
O26 Si10 O9 109.1(4) . . ?
O15 Si10 O10 108.5(5) 2_575 . ?
O26 Si10 O10 109.7(5) . . ?
O9 Si10 O10 110.9(5) . . ?
O10 Si11 O14 106.8(5) . . ?
O10 Si11 O22 109.0(5) . . ?
O14 Si11 O22 112.9(4) . . ?
O10 Si11 O11 111.0(5) . . ?
O14 Si11 O11 108.6(4) . . ?
O22 Si11 O11 108.5(4) . . ?
O24 Si12 O12 112.4(6) . . ?
O24 Si12 O11 109.1(5) . . ?
O12 Si12 O11 107.4(5) . . ?
O24 Si12 O20 106.7(5) . . ?
O12 Si12 O20 111.7(5) . . ?
O11 Si12 O20 109.6(4) . . ?
Si1 O1 Si2 151.4(6) . . ?
Si3 O2 Si2 149.9(5) . . ?
Si3 O3 Si4 173.5(7) . . ?
Si5 O4 Si4 154.4(5) . . ?
Si5 O5 Si6 147.2(5) . . ?
Si6 O6 Si2 159.2(7) . . ?
Si8 O7 Si7 156.2(6) . . ?
Si9 O8 Si8 152.3(5) . . ?
Si10 O9 Si9 155.2(6) . . ?
Si11 O10 Si10 162.4(7) . . ?
Si11 O11 Si12 152.2(5) . . ?
Si8 O12 Si12 164.5(8) . . ?
Si2 O13 Si8 173.5(14) . . ?
Si11 O14 Si5 162.3(6) . . ?
Si10 O15 Si1 147.2(5) 2_574 . ?
Si1 O16 Si4 163.3(5) . 2_574 ?
Si7 O17 Si4 147.5(5) . 2_574 ?
Si6 O18 Si9 143.1(5) . 2_574 ?
Si3 O19 Si6 160.1(6) 2_574 . ?
Si3 O20 Si12 147.2(6) 2_574 . ?
Si1 O21 Si5 144.3(5) 6_557 . ?
Si7 O22 Si11 150.3(6) 6_557 . ?
Si7 O23 Si7 149.0(8) 7_575 . ?
Si12 O24 Si12 149.4(7) 7_575 . ?
Si9 O25 Si9 145.7(6) . 7_575 ?
Si10 O26 Si10 143.7(6) . 7_575 ?

_refine_diff_density_max    0.553
_refine_diff_density_min   -0.793
_refine_diff_density_rms    0.145



